 Gaussian 09, Revision C.01,
 Gaussian 09:  EM64L-G09RevC.01 23-Sep-2011

 ----------------------------
 # nmr=giao rhf/6-311+g(2d,p)
 ----------------------------

 99/9=1/99;
 -------------------
 Title Card Required
 -------------------
 Charge =  0 Multiplicity = 1

                         Standard orientation:
 ---------------------------------------------------------------------
 Center     Atomic      Atomic             Coordinates (Angstroms)
 Number     Number       Type             X           Y           Z
 ---------------------------------------------------------------------
      1          6           0       -0.636596    1.446407   -0.123460
      2          6           0       -1.929107    0.727348    0.239711
      3          6           0       -1.899424   -0.693938   -0.304193
      4          6           0       -0.629965   -1.403603    0.136048
      5          6           0        0.609419    0.665740    0.298464
      6          1           0       -2.763577   -1.257152    0.036013
      7          1           0       -2.037797    0.698854    1.322420
      8          1           0       -2.786072    1.271180   -0.145920
      9          1           0       -0.596051    1.601637   -1.199003
     10          1           0       -0.609244    2.426842    0.342355
     11          1           0       -0.654429   -1.548071    1.223648
     12          1           0       -0.593004   -2.390852   -0.309556
     13          1           0        0.612102    0.603016    1.395025
     14          1           0       -1.933234   -0.673185   -1.389975
     15          6           0        1.859145    1.431205   -0.128063
     16          1           0        1.779265    2.464146    0.193106
     17          1           0        2.764698    1.028964    0.307734
     18          1           0        1.963190    1.418381   -1.208333
     19          6           0        1.744128   -1.470366    0.039300
     20          1           0        2.626107   -1.045932   -0.417650
     21          1           0        1.925905   -1.563376    1.115270
     22          1           0        1.620027   -2.467864   -0.363530
     23          7           0        0.568074   -0.683336   -0.264064
 ---------------------------------------------------------------------

 SCF Done:  E(RHF) =  -328.343405797     A.U. after   12 cycles

      1  C    Isotropic =   161.3028   Anisotropy =    19.5528

      2  C    Isotropic =   170.3745   Anisotropy =     4.1012

      3  C    Isotropic =   168.6485   Anisotropy =     5.4759

      4  C    Isotropic =   142.8594   Anisotropy =    41.3308

      5  C    Isotropic =   141.7946   Anisotropy =    30.2927

      6  H    Isotropic =    31.1876   Anisotropy =    11.2914

      7  H    Isotropic =    31.3948   Anisotropy =     9.3059

      8  H    Isotropic =    31.0179   Anisotropy =    11.3448

      9  H    Isotropic =    31.4243   Anisotropy =     7.1764

     10  H    Isotropic =    31.2771   Anisotropy =     9.3086

     11  H    Isotropic =    30.7446   Anisotropy =     7.7963

     12  H    Isotropic =    30.1515   Anisotropy =     8.7400

     13  H    Isotropic =    30.9708   Anisotropy =     5.7185

     14  H    Isotropic =    31.0965   Anisotropy =     9.1565

     15  C    Isotropic =   173.2626   Anisotropy =    29.6787

     16  H    Isotropic =    31.7359   Anisotropy =    10.0276

     17  H    Isotropic =    31.1853   Anisotropy =     9.4810

     18  H    Isotropic =    31.6386   Anisotropy =     8.7832

     19  C    Isotropic =   155.0185   Anisotropy =    55.2658

     20  H    Isotropic =    30.0125   Anisotropy =     9.6529

     21  H    Isotropic =    30.9039   Anisotropy =     9.9708

     22  H    Isotropic =    30.5504   Anisotropy =    10.4842

     23  N    Isotropic =   218.7195   Anisotropy =    29.4604

 The electronic state is 1-A.
 Alpha  occ. eigenvalues --  -15.53681 -11.24541 -11.23631 -11.23194 -11.21003
 Alpha  occ. eigenvalues --  -11.20836 -11.20776 -11.20470  -1.23387  -1.07235
 Alpha  occ. eigenvalues --   -1.04156  -0.94825  -0.91829  -0.84310  -0.80725
 Alpha  occ. eigenvalues --   -0.75168  -0.65204  -0.63652  -0.62054  -0.61040
 Alpha  occ. eigenvalues --   -0.59721  -0.55789  -0.54178  -0.53553  -0.52257
 Alpha  occ. eigenvalues --   -0.51256  -0.49868  -0.47599  -0.46298  -0.44145
 Alpha  occ. eigenvalues --   -0.43227  -0.34771
 Alpha virt. eigenvalues --    0.07226   0.07614   0.07958   0.08535   0.09787
 Alpha virt. eigenvalues --    0.10093   0.11112   0.11308   0.11775   0.13404
 Alpha virt. eigenvalues --    0.13802   0.14389   0.14854   0.15454   0.15870

 Mulliken atomic charges:
              1
     1  C   -0.264989
     2  C   -0.287125
     3  C   -0.348362
     4  C    0.016956
     5  C    0.189833
     6  H    0.104724
     7  H    0.113150
     8  H    0.105100
     9  H    0.119180
    10  H    0.107011
    11  H    0.092479
    12  H    0.098813
    13  H    0.064659
    14  H    0.117038
    15  C   -0.607223
    16  H    0.119058
    17  H    0.119723
    18  H    0.144613
    19  C   -0.186059
    20  H    0.112862
    21  H    0.105970
    22  H    0.106698
    23  N   -0.144108
 Sum of Mulliken atomic charges =   0.00000

 Dipole moment (field-independent basis, Debye):
    X=             -0.0738    Y=             -0.0123    Z=              0.6241  Tot=              0.6285
 Quadrupole moment (field-independent basis, Debye-Ang):
   XX=            -52.0449   YY=            -51.7330   ZZ=            -54.2807
   XY=             -0.0684   XZ=              0.4035   YZ=             -0.0492

 Normal termination of Gaussian 09 at Tue Oct  6 14:54:38 2015.
