 Gaussian 09, Revision C.01,
 Gaussian 09:  EM64L-G09RevC.01 23-Sep-2011

 ---------------------------
 # nmr=giao hf/6-311+g(2d,p)
 ---------------------------

 99/9=1/99;
 -------------------
 Title Card Required
 -------------------
 Charge =  0 Multiplicity = 1

                         Standard orientation:
 ---------------------------------------------------------------------
 Center     Atomic      Atomic             Coordinates (Angstroms)
 Number     Number       Type             X           Y           Z
 ---------------------------------------------------------------------
      1          6           0       -1.674665    0.859095   -0.082170
      2          1           0       -1.818865    1.521238    0.767339
      3          1           0       -1.766177    1.456300   -0.985424
      4          1           0       -2.487161    0.137474   -0.079859
      5          6           0        1.370220    1.292944   -0.009716
      6          1           0        1.282896    1.964629    0.840052
      7          1           0        2.350768    0.826889    0.037331
      8          1           0        1.334647    1.896592   -0.912620
      9          6           0        0.197223   -1.135256   -1.490503
     10          1           0        1.156167   -1.646092   -1.471363
     11          1           0       -0.580520   -1.893891   -1.512413
     12          1           0        0.139466   -0.576369   -2.420665
     13          6           0        0.107222   -1.016783    1.582390
     14          1           0       -0.672456   -1.772940    1.617331
     15          1           0        1.064317   -1.525777    1.658457
     16          1           0       -0.003080   -0.388053    2.461834
     17         14           0        0.000000    0.000000    0.000000
 ---------------------------------------------------------------------

 SCF Done:  E(RHF) =  -447.491009791     A.U. after   10 cycles

      1  C    Isotropic =   194.5996   Anisotropy =     5.0221

      2  H    Isotropic =    32.4261   Anisotropy =    10.0316

      3  H    Isotropic =    32.4261   Anisotropy =    10.0316

      4  H    Isotropic =    32.4261   Anisotropy =    10.0316

      5  C    Isotropic =   194.5996   Anisotropy =     5.0221

      6  H    Isotropic =    32.4260   Anisotropy =    10.0312

      7  H    Isotropic =    32.4261   Anisotropy =    10.0316

      8  H    Isotropic =    32.4263   Anisotropy =    10.0319

      9  C    Isotropic =   194.5996   Anisotropy =     5.0221

     10  H    Isotropic =    32.4261   Anisotropy =    10.0316

     11  H    Isotropic =    32.4263   Anisotropy =    10.0320

     12  H    Isotropic =    32.4260   Anisotropy =    10.0313

     13  C    Isotropic =   194.5997   Anisotropy =     5.0221

     14  H    Isotropic =    32.4260   Anisotropy =    10.0313

     15  H    Isotropic =    32.4262   Anisotropy =    10.0316

     16  H    Isotropic =    32.4263   Anisotropy =    10.0319

     17  Si   Isotropic =   385.7557   Anisotropy =     0.0001

 The electronic state is 1-A.
 Alpha  occ. eigenvalues --  -68.74707 -11.19044 -11.19044 -11.19044 -11.19043
 Alpha  occ. eigenvalues --   -6.09291  -4.20001  -4.20001  -4.20001  -0.97350
 Alpha  occ. eigenvalues --   -0.92105  -0.92105  -0.92105  -0.62253  -0.56646
 Alpha  occ. eigenvalues --   -0.56646  -0.56646  -0.54841  -0.54841  -0.52777
 Alpha  occ. eigenvalues --   -0.52777  -0.52777  -0.42294  -0.42294  -0.42294
 Alpha virt. eigenvalues --    0.05081   0.07345   0.07345   0.07345   0.11624
 Alpha virt. eigenvalues --    0.11624   0.11624   0.12922   0.12922   0.14832
 Alpha virt. eigenvalues --    0.15620   0.15620   0.15620   0.18259   0.18259

 Mulliken atomic charges:
              1
     1  C   -0.687406
     2  H    0.123204
     3  H    0.123204
     4  H    0.123204
     5  C   -0.687405
     6  H    0.123204
     7  H    0.123204
     8  H    0.123204
     9  C   -0.687405
    10  H    0.123204
    11  H    0.123204
    12  H    0.123204
    13  C   -0.687405
    14  H    0.123204
    15  H    0.123204
    16  H    0.123204
    17  Si   1.271169
 Sum of Mulliken atomic charges =   0.00000

 Dipole moment (field-independent basis, Debye):
    X=              0.0000    Y=              0.0000    Z=              0.0000  Tot=              0.0000
 Quadrupole moment (field-independent basis, Debye-Ang):
   XX=            -42.9776   YY=            -42.9776   ZZ=            -42.9776
   XY=              0.0000   XZ=              0.0000   YZ=              0.0000

 1\1\GINC-PAULING\SP\RHF\6-311+G(2d,p)\C4H12Si1\DOLEARY\10-Oct-2015\0\\
 # nmr=giao hf/6-311+g(2d,p)\\Title Card Required\\0,1\C,0,-1.805314,-0
 .175183,-0.509365\H,0,-2.465691,0.290617,0.217151\H,0,-1.989557,0.2946
 34,-1.471769\H,0,-2.090677,-1.220449,-0.5923\C,0,0.442519,1.826912,0.1
 25982\H,0,-0.17638,2.33134,0.863145\H,0,1.480322,1.960657,0.41919\H,0,
 0.300599,2.33224,-0.82554\C,0,1.099018,-0.82493,-1.288779\H,0,2.149089
 ,-0.740065,-1.022239\H,0,0.867131,-1.882282,-1.384311\H,0,0.968733,-0.
 368788,-2.266456\C,0,0.263777,-0.826799,1.672162\H,0,0.016065,-1.88409

 Normal termination of Gaussian 09 at Sat Oct 10 16:19:35 2015.
